7.396080000000000432e+00 2.225319999999999965e+00 9.805369999999999919e+00 8.318870000000000431e+00 1.550820000000000087e+00 1.096180000000000021e+01 1.070330000000000048e+01 1.035929999999999929e+01 3.170799999999999730e-01 1.097189999999999976e+01 1.163969999999999949e+01 1.388919999999999932e+00 1.219880000000000075e+00 3.557589999999999808e+00 7.060109999999999886e+00 9.348100000000000298e-01 4.564370000000000260e+00 5.854149999999999743e+00 4.470220000000000304e+00 3.968129999999999935e+00 2.763300000000000201e-01 3.434480000000000199e+00 3.701820000000000110e+00 1.140450000000000053e+01 3.481970000000000010e+00 3.297989999999999977e+00 9.267379999999999285e+00 3.149830000000000130e+00 1.842090000000000005e+00 9.704650000000000887e+00 2.281750000000000167e+00 1.085089999999999932e+01 1.140879999999999939e+01 3.440840000000000121e+00 1.053659999999999997e+01 1.032970000000000077e+01 6.961879999999999846e+00 2.440240000000000187e+00 4.254550000000000054e+00 8.616860000000000852e+00 1.149740000000000073e+01 4.328839999999999577e+00 8.501070000000000348e+00 4.986539999999999750e+00 1.230000000000000071e+01 8.560829999999999274e+00 3.360869999999999802e+00 1.195630000000000059e+01 1.128139999999999965e+01 1.025389999999999979e+01 6.378930000000000433e+00 3.249900000000000011e-01 1.063380000000000081e+01 5.760589999999999655e+00 1.167969999999999953e+00 6.042639999999999567e+00 1.201769999999999960e+01 2.774579999999999824e+00 5.570700000000000429e+00 1.214090000000000025e+01 1.230977000000000032e+01 1.362689999999999957e+00 1.186439999999999984e+01 1.160309999999999953e+01 1.769999999999999907e-01 1.126829999999999998e+01 4.461269999999999847e+00 8.780260000000000176e+00 1.004410000000000025e+00 5.653270000000000017e+00 8.570710000000000051e+00 1.235308999999999990e+01 4.789640000000000342e+00 7.225030000000000285e+00 5.605749999999999567e+00 4.189919999999999867e+00 6.277260000000000062e+00 4.423569999999999780e+00 1.353809999999999958e+00 7.676890000000000214e+00 7.729370000000000296e+00 8.054099999999999593e-01 6.241719999999999935e+00 7.197820000000000107e+00 8.669209999999999638e+00 1.517079999999999984e+00 7.269790000000000418e+00 8.145830000000000126e+00 1.506200000000000039e-01 6.534480000000000288e+00 5.693660000000000387e+00 5.089900000000000091e+00 2.516109999999999847e+00 5.914550000000000196e+00 6.527870000000000061e+00 3.213550000000000129e+00 9.812659999999999272e+00 2.691429999999999989e+00 9.921469999999999345e+00 1.125150000000000006e+01 2.188330000000000108e+00 1.008409999999999940e+01 1.035940000000000083e+00 9.499040000000000816e+00 1.015990000000000038e+01 6.798999999999999488e-01 8.084929999999999950e+00 9.678530000000000300e+00 6.631660000000000110e+00 8.055849999999999511e+00 1.021669999999999945e+01 5.205429999999999779e+00 7.351309999999999789e+00 1.049479999999999968e+01 6.083380000000000010e+00 8.463219999999999743e+00 2.234150000000000080e+00 7.339870000000000339e+00 7.982929999999999637e+00 3.142929999999999779e+00 7.743629999999999569e+00 4.904600000000000071e-01 4.382929999999999993e+00 1.065000000000000036e+01 1.037470000000000070e+01 4.033290000000000042e+00 7.569399999999999906e+00 6.872919999999999696e+00 6.259299999999999642e+00 8.930910000000000792e+00 6.866480000000000139e+00 6.887480000000000047e+00 1.019350000000000023e+01 2.485980000000000079e+00 7.745049999999999990e+00 1.058680000000000021e+01 2.053690000000000015e+00 6.328199999999999825e+00 1.165189999999999948e+01 4.475939999999999586e+00 4.194320000000000270e+00 1.421099999999999863e-01 5.691410000000000302e+00 4.343340000000000423e+00 1.097059999999999924e+01 8.767609999999999459e+00 1.128599999999999959e+01 9.772710000000000008e+00 8.210779999999999745e+00 1.211660000000000004e+01 6.276259999999999728e+00 7.873999999999999888e-01 1.968250000000000055e+00 4.682000000000000384e+00 7.117700000000000138e-01 1.586500000000000021e+00 1.044979999999999976e+01 1.731300000000000061e+00 2.795490000000000030e+00 9.508079999999999643e+00 3.876329999999999831e+00 3.306160000000000210e+00 6.127130000000000187e+00 1.216949999999999932e+01 3.419800000000000062e-01 6.203470000000000262e+00 1.068859999999999921e+01 4.377499999999999725e-01 1.121299999999999919e+01 4.505869999999999820e+00 9.225519999999999499e+00 1.193030000000000079e+01 5.968160000000000132e+00 8.874380000000000379e+00 2.104330000000000034e+00 1.180589999999999939e+01 9.439059999999999562e+00 9.678900000000000281e-01 4.874600000000000044e-01 9.391730000000000800e+00 8.171939999999999316e+00 5.381529999999999703e+00 8.545650000000000190e+00 9.623670000000000613e+00 5.901290000000000369e+00 8.894510000000000360e+00 6.028500000000000192e+00 9.629490000000000549e+00 4.228710000000000413e+00 6.372320000000000206e+00 1.113240000000000052e+01 4.806510000000000282e+00 3.469829999999999970e+00 8.199210000000000775e+00 7.209130000000000038e+00 2.443090000000000206e+00 9.403100000000000236e+00 7.511639999999999873e+00 6.697800000000000420e-01 8.145979999999999777e+00 4.476560000000000095e+00 1.207220000000000049e+01 7.783859999999999779e+00 5.588739999999999597e+00 9.347690000000000055e+00 5.505110000000000170e+00 4.936919999999999753e+00 9.909610000000000696e+00 4.153340000000000032e+00 5.424039999999999750e+00 3.153550000000000075e+00 2.607700000000000018e-01 2.930639999999999912e+00 2.759160000000000057e+00 1.229969999999999963e+01 1.335010000000000030e+00 8.187580000000000524e+00 8.192289999999999850e+00 8.761200000000000543e+00 7.969229999999999592e+00 9.718289999999999651e+00 8.815799999999999415e+00 2.438530000000000086e+00 7.627939999999999721e+00 8.088300000000000489e-01 2.547499999999999876e+00 8.438650000000000873e+00 2.169789999999999885e+00 7.695260000000000211e+00 7.134339999999999904e+00 1.156359999999999921e+01 8.681050000000000821e+00 6.413299999999999557e+00 1.062609999999999921e+01 6.748499999999999499e-01 1.088339999999999996e+01 5.487999999999999545e-01 1.886959999999999971e+00 9.944559999999999178e+00 6.184300000000000352e-01 5.787119999999999820e+00 5.057590000000000252e+00 7.886669999999999625e+00 6.563460000000000072e+00 3.643930000000000113e+00 7.899589999999999890e+00 3.196769999999999889e+00 7.901159999999999961e+00 9.511329999999999174e+00 2.829120000000000079e+00 6.991030000000000300e+00 1.072139999999999915e+01 8.190300000000000580e+00 2.320780000000000065e+00 3.270309999999999828e+00 9.122130000000000294e+00 3.603149999999999853e+00 1.717899999999999983e+00 6.879719999999999835e+00 4.100559999999999761e+00 7.871200000000000419e-01 5.962449999999999584e+00 2.902229999999999865e+00 1.558720000000000105e+00 9.719599999999999795e+00 7.406959999999999766e+00 2.791710000000000136e+00 9.187820000000000320e+00 7.603959999999999830e+00 4.290849999999999831e+00 2.635699999999999932e+00 4.816930000000000156e+00 7.797130000000000116e+00 3.163060000000000205e+00 5.635959999999999859e+00 9.016400000000000858e+00 2.922379999999999978e+00 4.029399999999999871e+00 1.873299999999999965e+00 1.873879999999999990e+00 4.415910000000000224e+00 3.119479999999999809e+00 4.391969999999999708e+00 2.535340000000000149e+00 5.213890000000000136e+00 3.160330000000000084e+00 2.428139999999999965e+00 4.331579999999999764e+00 2.395849999999999813e+00 1.995940000000000047e+00 6.282580000000000275e+00 1.805229999999999890e+00 1.401520000000000099e+00 7.673600000000000421e+00 6.525699999999999612e+00 1.141680000000000028e+00 8.207229999999999137e+00 5.231749999999999901e+00 2.004150000000000098e+00 8.893280000000000740e+00 5.764639999999999986e+00 4.346779999999999866e+00 4.456979999999999720e+00 6.305320000000000036e+00 3.955670000000000019e+00 5.947250000000000369e+00 2.559369999999999923e+00 1.135149999999999970e+01 5.858859999999999957e+00 1.724229999999999929e+00 1.160940000000000083e+01 7.235540000000000305e+00 5.552950000000000053e+00 1.102379999999999960e+01 1.088209999999999944e+01 5.260309999999999597e+00 9.891529999999999490e+00 9.753600000000000492e+00 2.439500000000000002e-01 1.183070000000000066e+00 5.854709999999999859e+00 1.158029999999999937e+01 1.223179999999999978e+01 5.651449999999999640e+00 3.200450000000000017e+00 8.046150000000000801e+00 4.278810000000000002e+00 2.851550000000000029e+00 9.656240000000000379e+00 3.848430000000000017e+00 1.222339999999999982e+01 1.617180000000000062e+00 2.155289999999999928e+00 1.150019999999999953e+01 1.133899999999999908e+00 3.836609999999999854e+00 1.006039999999999957e+01 1.030840000000000067e+01 8.329520000000000479e+00 1.145599999999999952e+01 9.611660000000000537e+00 8.717969999999999331e+00 1.175629999999999953e+01 5.366670000000000051e+00 4.611199999999999743e-01 1.167989999999999995e+01 5.353419999999999845e+00 1.138850000000000051e+01 6.244690000000000296e+00 8.531710000000000349e+00 7.575429999999999886e+00 9.550720000000000098e+00 9.608420000000000627e+00 3.282420000000000115e+00 8.773170000000000357e+00 1.136550000000000082e+01 9.987069999999999226e+00 8.523540000000000560e+00 1.168060000000000009e+01 8.405799999999999272e+00 3.734160000000000146e+00 1.680099999999999927e-01 4.723410000000000331e+00 4.360549999999999926e+00 1.112429999999999986e+01 4.625639999999999752e+00 7.815140000000000420e+00 1.179519999999999946e+01 1.186640000000000050e+01 9.443649999999999878e+00 1.190649999999999942e+01 1.195989999999999931e+01 1.206750000000000078e+01 7.559960000000000235e+00 2.625789999999999846e+00 1.116189999999999927e+01 7.738339999999999996e+00 1.263879999999999892e+00 1.072929999999999939e+00 3.003639999999999866e+00 1.680670000000000108e+00 1.597250000000000059e+00 1.595239999999999991e+00 1.736720000000000041e+00 5.628879999999999661e+00 9.134740000000000748e+00 6.305710000000000370e+00 8.107430000000000803e+00 2.381470000000000198e+00 1.045979999999999954e+01 1.110130000000000017e+01 1.127449999999999974e+01 4.770499999999999741e-01 1.136830000000000007e+00 4.491109999999999935e+00 6.805729999999999613e+00 3.628649999999999931e+00 4.199840000000000018e+00 1.223889999999999922e+01 3.805810000000000137e+00 2.567670000000000119e+00 9.859159999999999258e+00 2.437980000000000036e+00 1.050600000000000023e+01 1.046920000000000073e+01 7.845320000000000071e+00 1.193660000000000032e+01 4.781069999999999709e+00 8.468719999999999359e+00 4.052319999999999922e+00 2.488400000000000056e-01 1.174939999999999962e+01 1.060330000000000084e+01 5.590119999999999756e+00 2.087569999999999926e+00 6.354669999999999597e+00 1.211619999999999919e+01 1.203679999999999950e+01 1.004920000000000035e+00 1.099060000000000059e+01 5.446069999999999744e+00 8.916510000000000602e+00 8.509799999999999587e-01 3.941139999999999866e+00 6.917959999999999887e+00 5.164830000000000254e+00 6.167200000000000459e-01 6.946909999999999918e+00 7.830110000000000348e+00 8.097799999999999443e+00 6.742099999999999760e-01 7.345699999999999896e+00 5.345379999999999576e+00 5.681189999999999962e+00 3.228610000000000202e+00 1.067379999999999995e+01 2.724580000000000002e+00 9.468379999999999797e+00 3.132199999999999984e-01 8.877179999999999183e+00 1.012119999999999997e+01 6.050279999999999880e+00 7.668230000000000324e+00 1.090639999999999965e+01 6.390930000000000000e+00 8.241759999999999309e+00 3.201700000000000212e+00 9.814809999999999590e+00 1.053720000000000034e+01 3.560569999999999791e+00 8.472009999999999152e+00 6.797320000000000029e+00 6.003059999999999619e+00 9.949740000000000251e+00 2.670869999999999855e+00 6.762489999999999668e+00 2.397900000000000031e-01 4.713650000000000340e+00 4.356600000000000250e+00 1.041810000000000080e+01 8.941129999999999356e+00 1.206520000000000081e+01 5.618839999999999613e+00 1.026520000000000099e+00 1.238240000000000007e+00 9.529429999999999623e+00 3.221000000000000085e+00 2.551590000000000025e+00 6.340650000000000119e+00 1.133300000000000018e+01 1.216699999999999982e+01 1.125120000000000076e+01 5.488520000000000287e+00 9.435660000000000380e+00 1.886560000000000015e+00 3.134399999999999964e-01 9.057499999999999218e+00 8.655369999999999564e+00 6.101580000000000226e+00 8.917389999999999262e+00 5.641230000000000189e+00 1.043459999999999965e+01 4.759260000000000268e+00 2.791110000000000202e+00 8.566110000000000113e+00 7.837799999999999656e+00 1.221010000000000062e+01 7.610540000000000305e+00 4.636849999999999916e+00 9.866099999999999426e+00 4.772660000000000124e+00 4.674999999999999822e+00 3.077949999999999964e+00 5.844399999999999595e-01 1.975410000000000110e+00 7.405310000000000059e+00 8.841670000000000584e+00 8.865299999999999514e+00 2.747669999999999835e+00 8.522159999999999513e+00 1.154409999999999936e+00 8.612099999999999866e+00 6.776650000000000063e+00 1.159280000000000044e+01 1.665599999999999969e+00 1.088840000000000074e+01 6.037700000000000289e-01 6.608530000000000015e+00 4.596199999999999619e+00 7.559809999999999697e+00 3.504859999999999864e+00 7.140970000000000262e+00 1.002180000000000071e+01 7.436499999999999666e+00 1.799239999999999950e+00 3.672120000000000051e+00 5.993669999999999831e+00 3.852100000000000080e+00 1.283700000000000063e+00 9.068889999999999674e+00 7.850740000000000052e+00 3.324720000000000120e+00 3.419869999999999965e+00 4.903570000000000206e+00 8.420550000000000423e+00 2.304710000000000036e+00 3.729319999999999968e+00 2.645610000000000017e+00 3.597659999999999858e+00 1.941550000000000109e+00 5.039699999999999847e+00 1.562470000000000026e+00 1.880379999999999940e+00 6.843350000000000044e+00 6.176910000000000345e+00 2.021510000000000140e+00 8.495990000000000819e+00 5.988859999999999850e+00 3.580729999999999968e+00 5.039460000000000051e+00 1.915089999999999959e+00 1.098900000000000077e+01 6.537099999999999689e+00 5.061980000000000146e+00 1.080279999999999951e+01 1.007460000000000022e+01 1.175280000000000058e+01 7.768300000000000205e-01 5.393600000000000172e+00 2.564839999999999787e+00 8.708420000000000272e+00 3.824910000000000032e+00 1.132230000000000025e+01 1.209810000000000052e+00 2.828370000000000051e+00 1.089000000000000057e+01 9.911799999999999500e+00 7.927730000000000388e+00 1.223690000000000033e+01 5.019680000000000142e+00 1.209019999999999939e+01 5.543090000000000295e+00 8.310209999999999653e+00 6.861550000000000260e+00 8.778560000000000585e+00 1.101880000000000059e+01 9.022439999999999571e+00 3.534100000000000019e+00 1.165290000000000070e+01 4.343890000000000029e+00 8.637579999999999814e+00 1.215949999999999953e+01 1.145040000000000013e+01 1.129190000000000005e+01 7.187540000000000262e+00 2.075369999999999937e+00 7.011699999999999600e-01 2.018260000000000165e+00 1.451910000000000034e+00
7.822219999999999729e+00 1.914919999999999956e+00 1.049610000000000021e+01 8.849140000000000228e+00 9.543800000000000061e-01 1.120369999999999955e+01 1.074699999999999989e+01 9.650560000000000471e+00 6.556400000000000006e-01 1.053829999999999956e+01 1.061379999999999946e+01 1.963070000000000093e+00 1.927349999999999897e+00 4.268250000000000099e+00 6.748829999999999885e+00 2.807620000000000005e+00 5.545860000000000234e+00 6.437240000000000073e+00 4.304179999999999673e+00 4.027630000000000265e+00 1.826399999999999968e-01 3.514339999999999797e+00 3.248009999999999842e+00 1.148629999999999995e+01 4.121679999999999566e+00 3.332549999999999901e+00 9.486950000000000216e+00 3.050759999999999916e+00 2.189810000000000034e+00 9.702420000000000044e+00 1.498099999999999987e+00 1.143210000000000015e+01 1.165099999999999980e+01 2.666150000000000020e+00 1.126459999999999972e+01 1.054620000000000068e+01 6.597249999999999837e+00 2.127880000000000216e+00 4.037139999999999951e+00 8.522240000000000038e+00 1.100099999999999945e+01 4.261040000000000383e+00 8.575989999999999114e+00 4.958800000000000097e+00 1.207499999999999929e+01 8.444789999999999353e+00 3.325340000000000185e+00 1.210060000000000002e+01 1.129819999999999958e+01 1.062310000000000088e+01 6.636459999999999582e+00 1.959200000000000108e-01 1.052630000000000088e+01 5.855419999999999625e+00 1.558780000000000054e+00 6.185130000000000017e+00 1.177350000000000030e+01 2.818589999999999929e+00 5.522109999999999630e+00 1.239799999999999969e+01 1.593900000000000039e-01 3.556020000000000181e+00 1.118050000000000033e+01 1.514399999999999913e-01 2.048200000000000021e+00 1.159859999999999935e+01 4.636250000000000426e+00 8.961339999999999861e+00 9.929999999999999938e-01 5.776069999999999816e+00 8.657840000000000202e+00 1.223010000000000019e+01 4.478519999999999612e+00 6.948360000000000092e+00 6.109899999999999665e+00 4.473639999999999617e+00 6.023069999999999702e+00 4.730990000000000251e+00 1.091199999999999948e-01 7.369139999999999802e+00 7.073299999999999699e+00 1.175820000000000087e+00 6.307159999999999656e+00 7.689960000000000129e+00 8.299879999999999924e+00 1.341250000000000053e+00 6.920880000000000365e+00 7.625960000000000072e+00 1.231869000000000014e+01 6.454760000000000275e+00 5.649610000000000021e+00 4.955140000000000100e+00 2.615479999999999805e+00 5.955739999999999590e+00 6.433370000000000033e+00 3.228880000000000194e+00 9.641899999999999693e+00 2.498359999999999914e+00 9.809730000000000061e+00 1.121349999999999980e+01 2.923740000000000006e+00 9.894769999999999399e+00 7.402999999999999581e-01 9.757630000000000692e+00 1.016740000000000066e+01 6.322600000000000442e-01 8.195850000000000080e+00 9.561629999999999185e+00 6.680839999999999890e+00 8.344260000000000232e+00 1.000719999999999921e+01 5.477000000000000313e+00 7.553689999999999571e+00 1.067869999999999919e+01 6.697350000000000136e+00 8.328749999999999432e+00 2.041160000000000085e+00 7.571159999999999890e+00 7.674800000000000288e+00 3.222919999999999785e+00 7.451609999999999623e+00 1.215429999999999922e+01 3.870039999999999925e+00 1.079920000000000080e+01 1.009880000000000067e+01 4.167080000000000339e+00 1.028009999999999913e+01 7.173119999999999941e+00 6.090569999999999595e+00 1.091970000000000063e+01 8.445930000000000604e+00 6.742919999999999803e+00 1.004809999999999981e+01 2.369040000000000035e+00 7.617320000000000313e+00 1.022770000000000046e+01 1.738439999999999985e+00 6.232400000000000162e+00 1.230822000000000038e+01 4.066559999999999953e+00 4.896510000000000140e+00 9.400000000000000369e-03 5.537189999999999834e+00 4.768799999999999706e+00 1.141140000000000043e+01 8.475229999999999819e+00 1.119599999999999973e+01 1.007540000000000013e+01 7.996640000000000192e+00 1.190719999999999956e+01 5.710790000000000255e+00 1.168590000000000018e+00 2.092509999999999870e+00 4.211100000000000065e+00 8.010800000000000143e-01 1.637240000000000029e+00 1.005269999999999975e+01 2.080620000000000136e+00 2.682449999999999779e+00 9.111929999999999197e+00 3.757429999999999826e+00 3.362359999999999793e+00 5.751920000000000144e+00 1.218229999999999968e+01 4.807899999999999952e-01 5.767319999999999780e+00 1.056240000000000023e+01 2.461899999999999922e-01 1.056830000000000069e+01 4.521209999999999951e+00 9.019040000000000390e+00 1.155480000000000018e+01 5.768640000000000434e+00 8.565369999999999706e+00 1.484690000000000065e+00 6.404199999999999893e-01 9.577799999999999869e+00 9.492199999999999527e-01 2.080109999999999904e+00 9.575300000000000367e+00 8.108190000000000452e+00 5.787700000000000067e+00 7.439119999999999955e+00 9.489330000000000709e+00 6.163140000000000285e+00 8.157640000000000668e+00 5.857719999999999594e+00 8.993529999999999802e+00 4.101130000000000386e+00 6.381090000000000373e+00 1.044539999999999935e+01 4.663520000000000110e+00 3.525220000000000020e+00 8.649369999999999337e+00 7.740179999999999616e+00 1.959549999999999903e+00 8.005829999999999558e+00 7.908039999999999736e+00 1.289590000000000014e+00 7.517820000000000391e+00 3.902449999999999974e+00 1.231620000000000026e+01 7.561799999999999855e+00 4.711509999999999643e+00 1.030369999999999919e+01 4.533830000000000027e+00 4.962390000000000079e+00 8.752530000000000143e+00 4.008539999999999992e+00 5.451069999999999638e+00 2.729490000000000194e+00 1.221219999999999928e+01 3.153919999999999835e+00 2.116760000000000197e+00 1.198809999999999931e+01 1.735689999999999955e+00 7.793079999999999785e+00 7.880080000000000418e+00 8.198470000000000368e+00 7.741109999999999935e+00 9.449749999999999872e+00 8.451700000000000657e+00 2.821079999999999810e+00 7.979479999999999684e+00 8.260199999999999765e-01 2.936059999999999892e+00 8.627969999999999473e+00 2.286309999999999842e+00 7.934680000000000177e+00 6.625630000000000130e+00 1.100939999999999941e+01 9.238340000000000884e+00 6.400599999999999845e+00 1.032370000000000054e+01 3.803999999999999743e-02 1.075939999999999941e+01 1.020739999999999981e+00 1.324259999999999993e+00 9.805149999999999366e+00 1.049009999999999998e+00 5.637170000000000236e+00 4.751299999999999635e+00 7.672349999999999781e+00 6.661159999999999748e+00 3.685500000000000220e+00 8.171879999999999811e+00 3.407639999999999780e+00 7.787779999999999703e+00 9.561980000000000146e+00 3.160419999999999785e+00 7.005639999999999645e+00 1.103599999999999959e+01 7.753809999999999647e+00 2.082349999999999923e+00 2.889190000000000147e+00 8.969760000000000844e+00 3.635489999999999888e+00 1.663359999999999950e+00 6.778850000000000264e+00 4.057820000000000427e+00 5.807299999999999685e-01 5.715939999999999799e+00 3.011340000000000128e+00 1.204420000000000046e+00 9.945819999999999439e+00 6.874069999999999681e+00 3.052909999999999791e+00 9.205030000000000712e+00 6.136470000000000091e+00 4.189379999999999882e+00 3.523019999999999818e+00 5.041330000000000311e+00 8.033680000000000376e+00 4.370689999999999742e+00 5.720170000000000421e+00 9.230869999999999465e+00 2.819100000000000161e+00 3.759700000000000042e+00 1.596319999999999961e+00 2.529110000000000191e+00 4.689040000000000319e+00 2.831669999999999909e+00 4.604079999999999728e+00 2.804489999999999927e+00 5.075789999999999580e+00 3.507050000000000001e+00 2.656690000000000218e+00 3.892399999999999860e+00 2.233290000000000219e+00 2.441030000000000033e+00 6.117099999999999760e+00 1.398640000000000105e+00 2.188909999999999911e+00 7.440680000000000405e+00 6.828649999999999665e+00 1.415869999999999962e+00 8.225110000000000809e+00 5.839999999999999858e+00 1.865599999999999925e+00 9.284470000000000667e+00 6.155660000000000132e+00 4.152040000000000397e+00 4.431460000000000399e+00 6.375259999999999927e+00 3.611790000000000056e+00 5.972179999999999822e+00 2.557020000000000071e+00 1.100450000000000017e+01 5.655319999999999681e+00 2.125630000000000130e+00 1.022979999999999912e+01 6.899399999999999977e+00 5.039030000000000342e+00 1.111120000000000019e+01 1.056230000000000047e+01 4.247169999999999668e+00 9.777129999999999654e+00 1.020110000000000028e+01 9.048000000000000487e-02 1.417259999999999964e+00 5.767649999999999721e+00 1.159800000000000075e+01 2.182600000000000096e-01 5.325619999999999798e+00 3.244549999999999823e+00 7.928670000000000329e+00 4.500810000000000421e+00 2.339480000000000004e+00 9.198420000000000485e+00 4.819079999999999586e+00 1.173610000000000042e+01 1.997509999999999897e+00 2.212569999999999926e+00 1.120669999999999966e+01 1.609029999999999960e+00 3.869769999999999932e+00 1.002289999999999992e+01 1.026570000000000071e+01 8.345340000000000202e+00 1.149019999999999975e+01 9.406420000000000670e+00 8.806279999999999220e+00 1.184159999999999968e+01 5.467259999999999565e+00 2.897899999999999920e-01 1.200089999999999968e+01 5.647389999999999688e+00 1.111350000000000016e+01 5.768550000000000288e+00 8.406670000000000087e+00 7.585980000000000167e+00 9.761649999999999494e+00 8.997899999999999565e+00 3.729089999999999794e+00 8.756349999999999412e+00 1.116220000000000034e+01 9.810109999999999886e+00 8.383990000000000720e+00 1.189530000000000065e+01 8.420690000000000452e+00 3.996820000000000039e+00 3.815000000000000058e-01 4.707209999999999894e+00 4.255029999999999646e+00 1.120739999999999981e+01 4.571039999999999992e+00 8.003610000000000113e+00 1.152239999999999931e+01 1.205269999999999975e+01 9.552070000000000505e+00 1.148680000000000057e+01 4.062000000000000333e-02 1.202239999999999931e+01 6.881070000000000242e+00 2.410369999999999902e+00 1.139400000000000013e+01 7.287510000000000154e+00 1.012389999999999901e+00 8.186400000000000343e-01 3.260660000000000114e+00 1.689170000000000060e+00 1.130989999999999940e+00 1.802270000000000039e+00 1.701070000000000082e+00 5.189040000000000319e+00 8.921519999999999229e+00 6.154219999999999580e+00 8.633570000000000633e+00 1.931750000000000078e+00 1.107600000000000051e+01 1.075329999999999941e+01 1.061219999999999963e+01 9.637299999999999756e-01 2.274309999999999832e+00 5.077510000000000190e+00 7.104210000000000136e+00 3.367599999999999927e+00 3.879309999999999814e+00 1.236880000000000024e+01 3.944350000000000023e+00 2.544770000000000199e+00 1.003009999999999913e+01 1.696439999999999948e+00 1.143929999999999936e+01 1.067869999999999919e+01 7.620779999999999887e+00 1.140189999999999948e+01 4.475069999999999659e+00 8.412209999999999965e+00 4.177620000000000111e+00 2.634799999999999920e-01 1.161519999999999975e+01 1.080429999999999957e+01 5.712299999999999933e+00 2.453879999999999839e+00 6.417340000000000266e+00 1.217699999999999960e+01 1.092400000000000038e-01 2.625210000000000043e+00 1.082169999999999987e+01 5.595279999999999809e+00 9.035140000000000171e+00 7.706699999999999662e-01 3.906169999999999920e+00 6.530339999999999812e+00 5.320470000000000255e+00 6.534100000000000463e-01 7.142590000000000217e+00 7.930600000000000094e+00 7.708120000000000083e+00 5.700899999999999856e-01 7.194549999999999557e+00 5.589579999999999771e+00 5.497469999999999857e+00 3.413440000000000030e+00 1.039100000000000001e+01 2.905609999999999804e+00 9.238929999999999865e+00 1.259500000000000064e-01 8.988950000000000884e+00 9.918950000000000600e+00 6.435100000000000264e+00 7.832270000000000287e+00 1.079860000000000042e+01 6.688609999999999722e+00 7.904130000000000322e+00 2.921870000000000189e+00 1.002560000000000073e+01 9.941440000000000055e+00 3.571530000000000094e+00 1.110570000000000057e+01 7.689750000000000085e+00 6.125740000000000407e+00 9.577600000000000335e+00 2.261359999999999815e+00 6.767599999999999838e+00 1.180719999999999992e+01 4.820149999999999935e+00 5.074510000000000076e+00 1.102009999999999934e+01 8.228519999999999612e+00 1.211669999999999980e+01 5.030030000000000001e+00 1.266539999999999999e+00 1.391850000000000032e+00 9.035399999999999210e+00 3.122050000000000214e+00 2.545980000000000132e+00 5.996690000000000076e+00 1.142670000000000030e+01 1.222630000000000017e+01 1.079129999999999967e+01 5.525800000000000267e+00 9.116720000000000823e+00 1.520010000000000083e+00 1.455419999999999936e+00 9.055609999999999715e+00 8.649670000000000414e+00 6.524140000000000050e+00 7.716960000000000264e+00 5.591750000000000220e+00 9.749769999999999825e+00 4.664789999999999992e+00 2.669350000000000112e+00 8.629789999999999850e+00 8.278200000000000003e+00 3.614600000000000035e-01 7.126000000000000334e+00 3.944420000000000037e+00 9.258940000000000836e+00 4.524219999999999686e+00 4.759579999999999700e+00 2.527839999999999865e+00 3.263599999999999834e-01 2.289089999999999847e+00 7.181770000000000209e+00 8.629020000000000579e+00 8.363690000000000069e+00 3.001809999999999867e+00 8.818020000000000636e+00 1.315080000000000027e+00 8.897220000000000795e+00 6.481349999999999945e+00 1.124939999999999962e+01 1.062939999999999996e+00 1.075999999999999979e+01 8.747700000000000475e-01 6.576019999999999754e+00 4.431709999999999816e+00 7.479180000000000383e+00 3.873279999999999834e+00 7.356709999999999638e+00 1.029100000000000037e+01 7.046509999999999607e+00 1.505609999999999893e+00 3.344650000000000123e+00 5.940260000000000318e+00 3.990069999999999784e+00 1.069010000000000016e+00 9.133969999999999700e+00 6.976370000000000182e+00 3.698570000000000135e+00 4.312319999999999709e+00 4.994860000000000078e+00 8.579750000000000654e+00 2.411200000000000010e+00 3.756200000000000205e+00 2.520919999999999828e+00 3.690389999999999837e+00 2.375160000000000160e+00 4.827239999999999753e+00 1.386349999999999971e+00 2.605929999999999858e+00 6.547139999999999738e+00 6.729949999999999655e+00 2.030219999999999914e+00 9.033220000000000027e+00 6.200910000000000366e+00 3.337740000000000151e+00 5.067249999999999588e+00 1.831239999999999979e+00 1.040949999999999953e+01 6.005270000000000330e+00 4.236119999999999663e+00 1.074750000000000050e+01 1.008450000000000024e+01 1.160689999999999955e+01 1.156730000000000036e+00 5.365140000000000242e+00 2.581729999999999858e+00 8.542049999999999699e+00 4.097669999999999924e+00 1.096809999999999974e+01 1.673650000000000082e+00 2.864390000000000214e+00 1.082310000000000016e+01 9.740000000000000213e+00 8.058510000000000062e+00 5.199000000000000149e-02 5.181280000000000108e+00 1.186280000000000001e+01 5.002640000000000420e+00 8.357939999999999259e+00 6.956529999999999880e+00 8.630349999999999966e+00 1.103730000000000011e+01 8.871990000000000265e+00 3.560060000000000002e+00 1.188250000000000028e+01 4.550410000000000288e+00 8.898139999999999716e+00 1.171700000000000053e+01 1.170529999999999937e+01 1.143829999999999991e+01 6.527949999999999697e+00 1.732949999999999990e+00 3.936299999999999799e-01 2.418019999999999836e+00 1.457719999999999905e+00