-1.033784396020000031e+03
-1.035027240269999993e+03
-1.033238558980000107e+03
-1.032873698480000030e+03
-1.033593913639999982e+03
-1.034570148929999959e+03
-1.033833528809999962e+03
-1.035368827490000058e+03
-1.034947409650000054e+03
-1.033479960709999887e+03
-1.034553113639999992e+03
-1.033805198410000003e+03
-1.033211647170000106e+03
-1.034512455580000051e+03
-1.034454691650000086e+03
-1.034739757920000102e+03
-1.034459818349999978e+03
-1.033297201780000023e+03
-1.033268555679999963e+03
-1.033463425830000006e+03
-1.033688519390000010e+03
-1.033258102389999976e+03
-1.033791680589999942e+03
-1.033864770420000013e+03
-1.034764144550000083e+03
-1.034842499459999999e+03
-1.033251097339999887e+03
-1.033968360320000102e+03
-1.034180113820000088e+03
-1.033639685760000020e+03
-1.033189534370000047e+03
-1.034821898319999946e+03
-1.033531967899999927e+03
-1.034107752070000060e+03
-1.034823034810000081e+03
-1.032558728479999900e+03
-1.034455431679999947e+03
-1.034836012160000109e+03
-1.033109149659999957e+03
-1.033479152970000086e+03
-1.033822576159999926e+03
-1.033328669579999996e+03
-1.032656471029999921e+03
-1.033927184989999887e+03
-1.034026994099999911e+03
-1.034712104819999922e+03
-1.032951305600000069e+03
-1.034553045030000021e+03
-1.034270465070000000e+03
-1.035031848330000003e+03
-1.033876547090000031e+03
-1.033555074840000088e+03
-1.032608960510000088e+03
-1.032745954250000068e+03
-1.034158316839999998e+03
-1.034972337910000078e+03
-1.033709576010000092e+03
-1.034263143570000011e+03
-1.034815401659999907e+03
-1.033159392020000041e+03
-1.032876253310000038e+03
-1.033336608580000075e+03
-1.032622596200000089e+03
-1.034209201650000068e+03
-1.032412792820000050e+03
-1.033551571799999920e+03
-1.034406110449999915e+03
-1.032880595260000064e+03
-1.033048746180000080e+03
-1.034108317790000001e+03
-1.034257055739999942e+03
-1.034413018030000103e+03
-1.034108749250000074e+03
-1.033618773440000041e+03
-1.033128000160000056e+03
-1.034179993740000100e+03
-1.033861533640000061e+03
-1.034574011749999954e+03
-1.033957339950000005e+03
-1.033746662759999936e+03
-1.034324419940000098e+03
-1.033309174140000096e+03
-1.034283527069999991e+03
-1.033066347440000072e+03
-1.033798814259999972e+03
-1.033408015579999983e+03
-1.033747102510000104e+03
-1.033281296339999926e+03
-1.034079638769999974e+03
-1.034008707819999927e+03
-1.034280654140000024e+03
-1.033955352480000101e+03
-1.033411069120000093e+03
-1.034674276360000022e+03
-1.032716882550000037e+03
-1.034778701420000061e+03
-1.033946997569999894e+03
-1.034044158200000084e+03
-1.034541107759999932e+03
-1.034636288780000086e+03
