-3.034609999999999808e-01 -1.648249999999999993e-01 -2.861000000000000001e-02 -5.436290000000000289e-01 1.318120000000000125e-01 -8.419919999999999627e-01 2.984510000000000218e-01 5.974690000000000278e-01 5.668849999999999723e-01 -1.619740000000000069e-01 -8.674960000000000448e-01 -7.792270000000000030e-01 -2.254589999999999927e-01 -3.669680000000000164e-01 -3.907809999999999895e-01 -2.644469999999999876e-01 -4.878910000000000191e-01 -2.001159999999999883e-01 5.352329999999999588e-01 -1.102080000000000004e-01 -4.569440000000000168e-01 8.893320000000000114e-01 -1.062170000000000059e-01 8.421279999999999877e-01 4.527579999999999938e-01 2.623240000000000016e-01 1.435210000000000097e-01 4.886110000000000175e-01 2.903350000000000097e-01 3.002400000000000069e-01 -2.844899999999999859e-02 -4.553960000000000230e-01 -9.966500000000000359e-01 -4.074249999999999816e-01 8.347499999999999365e-02 1.042000000000000010e-01 -1.822469999999999923e-01 1.113220000000000043e-01 -1.593599999999999878e-02 -3.978130000000000277e-01 -5.127400000000000013e-02 1.887159999999999949e-01 2.915280000000000094e-01 -7.256240000000000467e-01 -2.248640000000000083e-01 -4.831219999999999959e-01 8.478050000000000308e-01 -3.659129999999999883e-01 4.720530000000000004e-01 -1.083210000000000006e-01 5.314710000000000267e-01 -5.907489999999999686e-01 -1.476169999999999982e-01 3.182900000000000174e-01 4.028600000000000236e-02 -7.796300000000000452e-01 1.293650000000000078e-01 -1.465966000000000102e+00 8.796810000000000462e-01 1.883370000000000044e-01 1.915169999999999928e-01 1.075129999999999975e-01 -5.553609999999999935e-01 -2.677799999999999972e-02 1.425500000000000031e-02 -1.380879999999999885e-01 4.889390000000000125e-01 2.573599999999999846e-02 -3.324920000000000098e-01 -5.759100000000000330e-02 -3.384119999999999906e-01 3.135700000000000293e-02 -1.045698000000000016e+00 -4.250140000000000029e-01 -5.353139999999999565e-01 8.152299999999999824e-02 8.861489999999999645e-01 1.106128000000000000e+00 -9.892779999999999907e-01 -1.687977999999999978e+00 1.681140000000000134e-01 3.379739999999999966e-01 -4.649599999999999844e-01 1.181719999999999993e-01 -8.246769999999999934e-01 -1.581572999999999896e+00 -5.692979999999999707e-01 5.928900000000000142e-02 1.290449999999999930e-01 -9.929919999999999858e-01 -3.456159999999999788e-01 -1.869900000000000034e-02 -1.919200000000000073e-02 -1.051779000000000019e+00 -7.991679999999999895e-01 4.624199999999999838e-02 -6.118209999999999482e-01 7.201499999999999568e-02 -2.118190000000000073e-01 -2.778840000000000199e-01 1.633499999999999952e-01 -6.867159999999999931e-01 1.175834999999999964e+00 7.599190000000000111e-01 2.612949999999999995e-01 -4.151779999999999915e-01 3.420170000000000154e-01 2.093089999999999951e-01 -4.324029999999999818e-01 1.828740000000000088e-01 -2.345939999999999970e-01 1.424179999999999890e-01 1.349219999999999864e-01 1.781929999999999903e-01 3.710530000000000217e-01 -2.096649999999999903e-01 1.094967999999999941e+00 4.169799999999999895e-02 4.131750000000000145e-01 5.600499999999999923e-02 1.751890000000000114e-01 -1.200380000000000003e+00 2.859289999999999887e-01 8.502300000000000135e-02 3.446259999999999879e-01 4.044639999999999902e-01 -1.615139000000000102e+00 1.092980000000000063e-01 5.796599999999999669e-02 -4.523659999999999903e-01 -2.111490000000000034e-01 -1.154063000000000061e+00 -1.101319999999999938e-01 1.005076999999999998e+00 -1.246585000000000054e+00 -3.127840000000000065e-01 6.628100000000000658e-02 -2.656549999999999745e-01 1.958615999999999913e+00 4.141719999999999846e-01 5.189759999999999929e-01 1.752160000000000106e-01 9.431699999999999806e-02 1.585080000000000100e-01 3.312869999999999981e-01 4.549399999999999972e-02 -4.661599999999999772e-02 -3.466389999999999749e-01 -4.804499999999999743e-02 -4.112999999999999989e-01 -1.150622999999999951e+00 7.147090000000000387e-01 -7.867570000000000396e-01 1.289290000000000047e+00 8.811949999999999505e-01 -5.511310000000000375e-01 1.237082999999999933e+00 3.030400000000000107e-02 -5.871499999999999497e-01 1.349980000000000069e-01 -1.097179999999999961e-01 -5.617370000000000418e-01 -2.399729999999999919e-01 -2.735400000000000054e-01 -1.187988999999999962e+00 -4.087729999999999975e-01 -2.198199999999999932e+00 8.914410000000000389e-01 2.793180000000000107e-01 1.001859000000000055e+00 2.660759999999999792e-01 -5.027270000000000350e-01 -6.399550000000000516e-01 4.016959999999999975e-01 1.073920000000000013e-01 4.375109999999999832e-01 2.505709999999999882e-01 9.612779999999999658e-01 -7.602899999999999936e-02 -2.900000000000000017e-05 -1.046637000000000040e+00 -1.176752000000000020e+00 -7.210689999999999600e-01 1.237810000000000021e-01 -2.380730000000000068e-01 2.538860000000000006e-01 -7.488179999999999836e-01 1.317971999999999921e+00 5.157620000000000537e-01 6.952800000000000646e-02 -7.708869999999999889e-01 -1.633890000000000065e-01 -5.882260000000000266e-01 6.886600000000000499e-01 6.680040000000000422e-01 2.599449999999999816e-01 6.742340000000000000e-01 -6.410130000000000550e-01 -1.330502999999999991e+00 -9.556280000000000330e-01 1.568809999999999927e-01 -1.849850000000000105e-01 -1.786000000000000087e-01 -2.856079999999999730e-01 -1.255131999999999914e+00 1.566758000000000095e+00 8.512450000000000294e-01 -2.066639999999999866e-01 -2.156399999999999983e-02 3.897769999999999846e-01 -2.227129999999999943e-01 -6.964599999999999680e-01 -1.472857000000000083e+00 -8.447899999999999854e-02 -2.271350000000000036e-01 1.085968999999999962e+00 -1.887739999999999974e+00 6.302680000000000504e-01 2.119640000000000135e-01 -1.149432999999999927e+00 -3.849589999999999956e-01 5.024619999999999642e-01 3.944119999999999848e-01 6.711150000000000171e-01 -4.722950000000000204e-01 6.441639999999999588e-01 6.017909999999999648e-01 -1.319166999999999978e+00 8.550099999999999367e-02 -2.783749999999999836e-01 2.311239999999999961e-01 -8.418999999999999401e-03 6.653480000000000505e-01 1.414703999999999962e+00 5.899879999999999569e-01 4.557620000000000005e-01 4.971400000000000124e-02 7.308750000000000524e-01 -9.066929999999999712e-01 5.656170000000000364e-01 7.533590000000000009e-01 -8.482279999999999820e-01 -3.701220000000000065e-01 -3.263619999999999854e-01 8.761020000000000474e-01 -1.298009999999999997e-01 3.198000000000000148e-02 2.179290000000000116e-01 -5.078279999999999461e-01 9.687999999999999390e-02 -9.882199999999999318e-02 4.895720000000000072e-01 -4.626520000000000077e-01 -4.237850000000000228e-01 1.732110000000000039e-01 3.843369999999999842e-01 -1.076580000000000037e-01 5.586060000000000469e-01 -1.541557999999999984e+00 -1.386495000000000033e+00 1.061738000000000071e+00 4.323080000000000256e-01 6.074150000000000382e-01 -6.266129999999999756e-01 1.353536000000000072e+00 -6.229019999999999557e-01 -3.497460000000000013e-01 -1.597189999999999999e-01 3.035140000000000060e-01 -1.411280000000000090e+00 9.078420000000000378e-01 1.961710000000000120e-01 3.637830000000000230e-01 4.579460000000000197e-01 1.846170000000000033e-01 2.983600000000000141e-02 -1.565574000000000021e+00 -1.668409999999999893e-01 1.863493000000000066e+00 -7.202359999999999873e-01 1.515665999999999958e+00 6.176709999999999701e-01 -2.731279999999999819e-01 -6.046719999999999873e-01 -7.112400000000000666e-02 -3.605679999999999996e-01 1.360290000000000110e-01 -5.249099999999999877e-01 -7.263389999999999569e-01 -3.516219999999999901e-01 5.446910000000000363e-01 -2.288400000000000156e-02 -6.864800000000000069e-02 -5.127150000000000318e-01 -2.844039999999999901e-01 7.411299999999999555e-01 -1.145000000000000046e-01 1.580073000000000061e+00 -6.332100000000000228e-02 -3.841200000000000170e-01 1.575340000000000074e-01 -5.531000000000000326e-03 2.587510000000000088e-01 -6.406469999999999665e-01 -3.029499999999999971e-01 -1.459208999999999978e+00 -6.365720000000000267e-01 -2.150289999999999979e-01 5.659100000000000241e-01 1.508760000000000101e-01 8.338959999999999706e-01 4.352269999999999750e-01 4.475419999999999954e-01 -2.762749999999999928e-01 5.245969999999999800e-01 2.305879999999999874e-01 1.046664000000000039e+00 6.003420000000000423e-01 -2.388072999999999890e+00 -1.494377999999999984e+00 -9.413740000000000441e-01 5.460009999999999586e-01 -1.893299999999999983e-01 -2.032339999999999980e-01 -2.070529999999999871e-01 9.148880000000000345e-01 1.284160000000000024e-01 -2.019999999999999921e-02 -1.183389000000000024e+00 2.980800000000000116e-01 -2.633769999999999722e-01 4.229760000000000186e-01 3.342669999999999808e-01 3.608609999999999873e-01 -5.304839999999999556e-01 -2.666009999999999769e-01 8.101089999999999680e-01 -1.482509999999999939e-01 -1.426090000000000135e-01 -7.977279999999999927e-01 3.706860000000000155e-01 -1.479570000000000052e+00 3.171559999999999935e-01 -2.171669999999999989e-01 3.723279999999999923e-01 -3.064020000000000077e-01 -6.012399999999999689e-02 -1.445624000000000020e+00 -9.712349999999999595e-01 -6.550270000000000259e-01 -6.559939999999999660e-01 -2.062900000000000150e-02 9.478830000000000311e-01 4.351709999999999745e-01 -2.033409999999999940e-01 6.419700000000000406e-02 -1.162177999999999933e+00 -5.834519999999999706e-01 2.101941000000000059e+00 -1.036343000000000014e+00 -4.108010000000000272e-01 -8.661299999999999555e-01 -4.764929999999999999e-01 8.011200000000000265e-02 -1.789459999999999940e-01 -7.716690000000000493e-01 1.828999999999999897e-03 -3.263769999999999727e-01 2.021099999999999980e-02 -5.786679999999999602e-01 9.083900000000000308e-02 -3.300399999999999862e-02 -2.045169000000000015e+00 -6.489110000000000156e-01 -1.248626999999999931e+00 5.407870000000000177e-01 -1.694120000000000070e-01 7.296460000000000168e-01 -1.065028000000000086e+00 -1.867466000000000070e+00 -1.006589999999999985e-01 -1.090203000000000033e+00 -3.210250000000000048e-01 -5.273679999999999479e-01 -3.382310000000000039e-01 -6.954660000000000286e-01 1.080180000000000029e-01 1.023879999999999901e+00 -2.877100000000000213e-01 1.006577999999999973e+00 -8.589099999999999513e-02 4.702410000000000201e-01 2.295250000000000068e-01 4.046759999999999802e-01 8.196900000000000297e-01 7.052490000000000148e-01 -1.066252999999999895e+00 1.396850000000000036e-01 -1.756089999999999873e-01 -1.012634999999999952e+00 -4.525689999999999991e-01 -6.712930000000000286e-01 4.533159999999999967e-01 6.845179999999999598e-01 5.090500000000000025e-01 1.603449999999999875e-01 9.607229999999999936e-01 -1.423879999999999868e-01 -3.880700000000000122e-02 6.393320000000000114e-01 2.929860000000000242e-01 2.644360000000000044e-01 2.027460000000000095e-01 -7.932620000000000227e-01 1.793706000000000023e+00 -2.222530000000000061e-01 1.337700000000000000e-02 1.259659999999999946e-01 -1.674339999999999995e-01 9.572880000000000278e-01 -5.819410000000000416e-01 2.516920000000000268e-01 3.116869999999999918e-01 8.716490000000000071e-01 -4.053289999999999949e-01 -6.642630000000000479e-01 7.116909999999999625e-01 1.960982000000000003e+00 4.730000000000000046e-04 6.291200000000000125e-01 9.243360000000000465e-01 1.010691999999999924e+00 1.167140999999999984e+00 6.225939999999999808e-01 -3.219199999999999839e-02 5.689189999999999525e-01 -1.282480000000000009e-01 3.409409999999999941e-01 -1.173235000000000028e+00 -1.201905000000000001e+00 -5.099479999999999569e-01 1.095919999999999950e-01 1.774500000000000036e-02 9.641900000000000470e-02 -2.559009999999999896e-01 -7.071800000000000308e-02 -1.009921000000000069e+00 -1.256999999999999958e-02 -1.174087000000000103e+00 -7.356519999999999726e-01 2.141969000000000012e+00 1.821399999999999963e-01 8.605049999999999644e-01 7.527150000000000230e-01 -9.488750000000000240e-01 1.600800999999999918e+00 -1.928792000000000062e+00 1.321110000000000062e-01 -1.015892000000000017e+00 8.591100000000000125e-02 -4.284299999999999775e-01 2.213930000000000065e-01 5.479599999999999749e-02 -1.374897000000000036e+00 1.843097999999999903e+00 -4.916449999999999987e-01 -1.087999999999999991e-03 1.097049999999999970e-01 3.767809999999999770e-01 2.702665999999999791e+00 8.862959999999999727e-01 1.158980000000000010e-01 -3.315179999999999794e-01 -6.408449999999999980e-01 -1.103990999999999945e+00 -1.258469999999999867e-01 1.218569999999999931e-01 1.192641000000000062e+00 1.574330999999999925e+00 5.753470000000000528e-01 1.416870999999999992e+00 -1.286812000000000067e+00 -2.011400000000000132e-01 2.177050000000000096e-01 -9.279279999999999751e-01 -2.003530000000000033e-01 2.094402999999999793e+00 1.028472999999999971e+00 2.029559999999999975e-01 1.264574000000000087e+00 -1.976965000000000083e+00 -8.246170000000000444e-01 -3.622500000000000026e-02 3.330000000000000182e-01 2.235749999999999960e-01 2.784247999999999834e+00 -5.655360000000000387e-01 -6.449660000000000393e-01 -8.492349999999999621e-01 -1.156060000000000088e+00 1.590154000000000067e+00 -1.597240000000000049e-01 -7.372260000000000479e-01 -1.433745999999999965e+00 -1.223082000000000003e+00 7.268999999999999906e-01 -3.371890000000000165e-01 -6.348780000000000534e-01 -4.404850000000000154e-01 5.625660000000000105e-01 5.523299999999999738e-02 -1.540680000000000105e-01 1.088549999999999934e-01 4.810130000000000239e-01 5.358990000000000142e-01 -5.065659999999999608e-01 8.070239999999999636e-01 5.755360000000000475e-01 -4.899950000000000139e-01 -1.349490000000000078e+00 4.336010000000000142e-01 2.096961999999999993e+00 -1.134155999999999942e+00 -5.102069999999999661e-01 -5.963330000000000020e-01 2.033462999999999798e+00 -1.353269000000000055e+00 -2.780742000000000047e+00 8.772389999999999910e-01 8.539069999999999716e-01 4.013039999999999941e-01 6.957900000000000196e-01 -7.255399999999999350e-02 -2.646330000000000071e-01 -1.174658999999999898e+00 -1.046180000000000027e-01 7.553760000000000474e-01 1.296930000000000027e-01 4.585179999999999811e-01 1.320179999999999909e+00 4.798000000000000043e-01 -8.137029999999999541e-01 -1.032969999999999944e+00 -1.129607999999999945e+00 -1.125679000000000096e+00 -1.780208000000000013e+00 1.982507999999999937e+00 2.398728999999999889e+00 9.528330000000000410e-01 -1.650089999999999890e-01 2.531410000000000049e-01 -1.108559999999999962e-01 -1.374000000000000110e+00 1.933279999999999998e-01 9.456820000000000226e-01 2.563449999999999895e-01 -5.514050000000000340e-01 1.864832999999999963e+00 -3.975790000000000157e-01 2.851980000000000071e-01 1.008391000000000037e+00 1.474871999999999961e+00 1.444822000000000051e+00 3.806840000000000224e-01 5.287039999999999518e-01 -1.646724999999999994e+00 2.214299000000000017e+00 -1.304069999999999951e-01 1.570407000000000108e+00 1.225095999999999963e+00 1.140627999999999975e+00 1.885940000000000116e-01 -1.690280000000000116e-01 1.416940000000000088e+00 7.060370000000000257e-01 -1.263700000000000101e-01 2.731055000000000010e+00 1.631772999999999918e+00 5.193569999999999576e-01
4.236170000000000213e-01 4.159399999999999903e-02 1.581279999999999908e-01 -2.112229999999999941e-01 5.348410000000000108e-01 4.837629999999999986e-01 4.470899999999999874e-02 1.005892999999999926e+00 1.755980000000000041e-01 5.923599999999999699e-02 -5.319289999999999852e-01 -1.565984000000000043e+00 -7.111629999999999896e-01 -1.477443000000000062e+00 -4.784390000000000032e-01 1.366529999999999967e-01 1.825509999999999911e-01 -7.974660000000000082e-01 5.993699999999999584e-01 1.461169999999999969e-01 4.470549999999999802e-01 -5.223139999999999450e-01 1.343439000000000050e+00 1.694215999999999944e+00 -3.696599999999999886e-02 4.263069999999999915e-01 -1.535940000000000083e-01 1.093861999999999890e+00 1.159209999999999963e-01 1.600870000000000071e-01 3.021440000000000237e-01 -3.798019999999999730e-01 -6.042419999999999458e-01 -1.428989999999999982e-01 -8.297200000000000408e-02 1.279450000000000032e-01 1.164779000000000009e+00 -1.012434000000000056e+00 -1.003784999999999927e+00 -1.248871999999999982e+00 3.941209999999999991e-01 4.328900000000000109e-02 3.430529999999999968e-01 -2.117549999999999988e-01 2.335349999999999926e-01 2.806049999999999933e-01 1.081174000000000079e+00 4.745969999999999911e-01 -3.677619999999999778e-01 -1.041799999999999948e-01 -2.874510000000000121e-01 -1.264631999999999978e+00 8.521109999999999518e-01 -7.250280000000000058e-01 8.275829999999999576e-01 5.820199999999999679e-02 1.118044000000000038e+00 8.401000000000000134e-02 -9.656599999999999906e-02 -4.246900000000000119e-01 6.607699999999999685e-02 -3.902689999999999770e-01 2.387289999999999968e-01 -8.077499999999999958e-02 9.395900000000000085e-02 5.933900000000000285e-02 -1.112699999999999974e-02 -8.145900000000000363e-02 -1.810299999999999965e-01 -1.449689999999999868e-01 3.692730000000000179e-01 1.604611000000000010e+00 -9.571290000000000076e-01 -4.401109999999999745e-01 -1.843323999999999963e+00 6.429179999999999895e-01 -3.975859999999999950e-01 -4.961880000000000179e-01 4.761520000000000197e-01 -6.618100000000000094e-01 1.720706999999999987e+00 -4.909410000000000163e-01 6.815489999999999604e-01 7.954899999999999471e-02 3.217280000000000140e-01 -6.010729999999999684e-01 -2.272300000000000014e-02 2.760100000000000053e-02 8.059790000000000010e-01 2.888290000000000024e-01 1.974019999999999941e-01 -3.762000000000000066e-02 -8.534789999999999877e-01 -1.505350000000000021e-01 -1.110065000000000079e+00 -2.580859999999999821e-01 1.004496000000000056e+00 6.348620000000000374e-01 -3.691920000000000202e-01 -1.802785000000000082e+00 -7.976119999999999877e-01 -1.311725000000000030e+00 -3.870410000000000239e-01 -8.684899999999999842e-01 -3.769379999999999953e-01 -5.536219999999999475e-01 1.552983999999999920e+00 2.634110000000000062e-01 4.277000000000000419e-03 -4.942400000000000265e-02 -4.594849999999999768e-01 5.556449999999999445e-01 2.036139999999999894e-01 -3.818690000000000140e-01 -4.351909999999999945e-01 -4.266500000000000153e-02 -4.186399999999999844e-02 1.012796000000000030e+00 -2.875980000000000203e-01 2.247800000000000145e-02 1.438869999999999871e-01 2.978600000000000136e-01 1.413600000000000134e-01 -5.126659999999999551e-01 2.015199999999999977e-02 2.414300000000000057e-01 2.072330000000000005e-01 8.288800000000000334e-02 9.929899999999999838e-02 -2.129540000000000044e-01 -3.729699999999999682e-02 -1.457720000000000127e-01 -1.701479999999999937e-01 3.091949999999999976e-01 4.237779999999999880e-01 -2.783880000000000243e-01 3.955449999999999799e-01 1.100170000000000037e-01 1.189864000000000033e+00 -2.491000000000000103e+00 -1.816770000000000052e-01 -6.594740000000000046e-01 5.126870000000000038e-01 -2.314680000000000071e-01 3.021700000000000080e-02 -1.645030000000000103e-01 1.536167000000000060e+00 7.144869999999999832e-01 -2.699099999999999833e-01 2.052180000000000115e-01 -1.966749999999999887e-01 -1.325699999999999969e-02 3.150310000000000055e-01 -4.335660000000000069e-01 9.036299999999999888e-02 3.992660000000000098e-01 -3.000099999999999989e-02 9.332880000000000065e-01 3.582000000000000114e-03 -1.522249999999999992e-01 -6.120910000000000517e-01 -8.880749999999999478e-01 1.962089999999999945e-01 -1.370637000000000105e+00 -1.461290999999999896e+00 7.959099999999999508e-02 3.953899999999999776e-02 3.016480000000000272e-01 3.502750000000000030e-01 9.918219999999999814e-01 1.867749999999999966e-01 -1.065640000000000059e-01 -3.060999999999999832e-02 1.263799999999999993e-02 9.870400000000000007e-02 -8.080540000000000500e-01 1.478879999999999917e-01 2.708189999999999764e-01 -5.203480000000000327e-01 -5.527399999999999675e-02 -6.557629999999999848e-01 -7.796610000000000484e-01 4.400000000000000265e-03 -1.103545999999999916e+00 2.751299999999999857e-01 -4.509600000000000275e-01 2.572670000000000234e-01 3.729750000000000010e-01 -2.885480000000000267e-01 -1.008485000000000076e+00 -1.576178000000000079e+00 -2.862649999999999917e-01 -7.984050000000000313e-01 -3.597170000000000090e-01 2.470050000000000023e-01 9.761370000000000324e-01 8.452450000000000241e-01 3.322490000000000165e-01 -6.593099999999999516e-01 1.716110000000000135e-01 2.762220000000000231e-01 -3.523099999999999843e-02 -1.398780000000000023e-01 -5.328330000000000011e-01 -1.916959000000000080e+00 2.607800000000000049e-02 -1.132670000000000066e-01 1.095747000000000027e+00 6.451430000000000220e-01 -7.935309999999999864e-01 2.324000000000000111e-03 1.184806000000000026e+00 -1.153933000000000098e+00 2.620239999999999791e-01 8.599830000000000529e-01 4.231699999999999906e-01 1.799860000000000071e-01 -3.228630000000000111e-01 -2.303479999999999972e-01 -6.166530000000000067e-01 -4.163749999999999951e-01 -1.375000000000000111e-01 5.033000000000000147e-03 2.959849999999999981e-01 3.905390000000000250e-01 -6.735900000000000221e-02 2.116270000000000095e-01 -4.536419999999999897e-01 4.326160000000000005e-01 5.802049999999999708e-01 7.771860000000000435e-01 4.157759999999999789e-01 -1.996630000000000071e-01 8.746150000000000313e-01 1.456658000000000008e+00 2.176849999999999896e-01 -4.685730000000000173e-01 3.103929999999999745e-01 1.509274000000000004e+00 -3.187309999999999865e-01 8.528139999999999610e-01 -4.598800000000000110e-02 2.023429999999999951e-01 1.009840000000000043e-01 9.678609999999999713e-01 -1.108929000000000054e+00 -5.445349999999999913e-01 5.228209999999999802e-01 -6.465440000000000076e-01 1.735916000000000015e+00 5.950999999999999623e-01 -1.334335999999999967e+00 -9.082090000000000440e-01 -5.504829999999999446e-01 7.926729999999999610e-01 -1.526089999999999947e-01 -2.712499999999999911e-01 1.006842999999999932e+00 5.677649999999999642e-01 4.854599999999999888e-02 1.628080000000000083e-01 2.973950000000000204e-01 1.315847999999999907e+00 -3.122219999999999995e-01 -1.910941999999999918e+00 2.706310000000000104e-01 1.034915999999999947e+00 -5.842079999999999496e-01 -2.675259999999999860e-01 3.194670000000000010e-01 -1.142263999999999946e+00 1.923340000000000050e-01 -1.407009999999999927e-01 -4.201590000000000047e-01 2.181349999999999956e-01 -1.434489999999999932e-01 -2.122159999999999880e-01 -2.241299999999999959e-01 5.555200000000000138e-01 -1.131719999999999948e-01 -1.065161999999999942e+00 -2.702010000000000245e-01 -1.382916999999999952e+00 -7.171220000000000372e-01 -7.034529999999999950e-01 -2.790400000000000172e-02 -1.408689999999999942e-01 8.776439999999999797e-01 6.954240000000000421e-01 -3.852039999999999909e-01 -4.833740000000000259e-01 2.293030000000000068e-01 -2.081409999999999927e-01 -1.249389999999999945e-01 4.671100000000000252e-01 5.106230000000000491e-01 8.864779999999999882e-01 -1.811217999999999995e+00 -8.838000000000000370e-03 9.512890000000000512e-01 3.335799999999999876e-02 -8.941890000000000116e-01 1.439845000000000041e+00 3.562440000000000051e-01 8.431870000000000198e-01 1.228493000000000057e+00 -8.083029999999999937e-01 1.383570000000000078e-01 -2.091020000000000101e-01 -1.972900000000000001e-02 -5.969889999999999919e-01 9.362460000000000226e-01 -1.035414000000000057e+00 -5.048979999999999579e-01 -8.017399999999999527e-02 7.831599999999999673e-02 5.115380000000000482e-01 -1.459399999999999933e-02 -9.224660000000000082e-01 1.480760000000000132e-01 -3.836379999999999790e-01 2.020999999999999793e-03 -2.619616999999999862e+00 2.153650000000000009e-01 -1.692849999999999910e-01 -4.152200000000000335e-02 7.552100000000000479e-02 1.263060000000000016e-01 -5.540859999999999674e-01 -6.699580000000000535e-01 -1.742200000000000137e-01 2.040790000000000104e-01 5.106749999999999901e-01 3.678100000000000119e-02 -1.076889999999999931e-01 -9.697179999999999689e-01 5.761880000000000335e-01 -4.155389999999999917e-01 3.981109999999999927e-01 -1.509298999999999946e+00 1.128800000000000026e+00 -1.077001000000000097e+00 1.830519000000000007e+00 -5.604200000000000292e-01 -1.533681000000000072e+00 1.008410000000000001e-01 -5.730520000000000058e-01 4.499219999999999886e-01 1.517580000000000040e-01 3.299070000000000058e-01 -4.596569999999999823e-01 2.092420000000000113e-01 7.471189999999999776e-01 -1.234760000000000024e-01 4.876799999999999885e-02 4.209620000000000029e-01 1.067396999999999929e+00 3.300700000000000162e-02 -5.787919999999999732e-01 2.780170000000000141e-01 -9.285050000000000248e-01 -9.917280000000000539e-01 -1.327079999999999926e-01 5.228340000000000209e-01 -5.145060000000000189e-01 -3.049700000000000188e-01 -2.723220000000000085e-01 7.799000000000000377e-02 -1.007500000000000062e-01 -5.344379999999999686e-01 -7.650899999999999368e-02 -9.422199999999999465e-01 6.554440000000000266e-01 -1.761400000000000118e-02 9.282869999999999733e-01 -5.132400000000000156e-02 -1.671836000000000100e+00 1.334335000000000049e+00 2.274299999999999933e-02 4.428050000000000042e-01 2.781939999999999968e-01 -2.679960000000000120e-01 -1.702649999999999997e-01 -7.139399999999999913e-02 3.496960000000000068e-01 -5.320000000000000076e-03 3.330259999999999887e-01 -5.031170000000000364e-01 -5.209369999999999834e-01 -7.842839999999999812e-01 -1.582240000000000035e-01 -4.278730000000000033e-01 1.528310000000000057e+00 7.567100000000000215e-02 1.746223000000000081e+00 6.327639999999999931e-01 2.766879999999999895e-01 -1.373715000000000019e+00 -2.058123999999999842e+00 -1.239363999999999910e+00 -3.828320000000000056e-01 8.753600000000000270e-02 -3.182220000000000049e-01 7.969999999999999307e-02 1.060220000000000051e-01 1.240674999999999972e+00 -3.684069999999999845e-01 8.512200000000000322e-02 9.667999999999999511e-03 -1.127334999999999976e+00 -1.219403999999999932e+00 1.616181000000000090e+00 -4.172629999999999950e-01 5.237429999999999586e-01 -1.189934000000000047e+00 -5.426199999999999773e-02 -3.989460000000000228e-01 -1.607049999999999867e-01 1.150806999999999913e+00 4.502269999999999883e-01 6.275340000000000362e-01 -5.360150000000000192e-01 -1.610384000000000038e+00 3.654310000000000058e-01 9.974420000000000508e-01 2.504818000000000211e+00 -4.709900000000000198e-01 -1.122133000000000047e+00 -1.938725000000000032e+00 -1.900449999999999917e-01 -6.441350000000000131e-01 -5.727989999999999471e-01 1.202430000000000027e-01 9.219960000000000377e-01 8.502859999999999863e-01 7.241959999999999509e-01 -2.724400000000000086e-02 1.773716999999999988e+00 8.887129999999999752e-01 -3.535139999999999949e-01 2.664799999999999947e-01 -6.937710000000000266e-01 -4.641370000000000218e-01 9.163350000000000106e-01 -8.374279999999999502e-01 1.629600000000000146e-02 2.938290000000000068e-01 1.155700000000000061e-01 -5.714960000000000040e-01 3.631429999999999936e-01 4.668599999999999833e-02 4.100840000000000041e-01 2.890650000000000164e-01 3.418340000000000267e-01 -2.133170000000000066e-01 -6.042079999999999673e-01 -4.744300000000000184e-01 1.790629000000000026e+00 4.030429999999999846e-01 -7.673520000000000341e-01 4.091940000000000022e-01 -1.830881999999999898e+00 8.710630000000000317e-01 3.027200000000000030e-02 -3.274310000000000276e-01 -2.172169999999999934e-01 9.153799999999999715e-01 -8.904700000000000115e-02 1.412210000000000132e-01 1.803530999999999995e+00 8.757650000000000157e-01 -2.918810000000000016e-01 -8.272140000000000049e-01 -7.832200000000000273e-02 1.186460000000000015e-01 1.025422000000000056e+00 -2.402849999999999986e-01 1.735416000000000070e+00 3.860779999999999768e-01 5.211970000000000214e-01 5.648579999999999712e-01 1.302542000000000089e+00 6.406439999999999912e-01 3.419300000000000117e-01 7.096399999999999930e-02 -6.517560000000000020e-01 5.632939999999999614e-01 9.584099999999999564e-02 5.738940000000000152e-01 1.014836999999999989e+00 -6.825350000000000028e-01 8.793459999999999610e-01 -5.131850000000000023e-01 -1.795077000000000034e+00 1.499979999999999924e-01 6.046289999999999720e-01 1.036461999999999994e+00 4.769100000000000006e-01 -2.998759999999999759e-01 -7.771810000000000107e-01 2.508299999999999974e-01 -1.029965000000000019e+00 -6.624700000000000033e-02 -1.648382999999999932e+00 -1.579560000000000075e+00 -1.212677000000000005e+00 6.777119999999999811e-01 -3.286760000000000237e-01 -1.179151999999999978e+00 8.731649999999999689e-01 -6.692059999999999675e-01 -1.259160999999999975e+00 1.877966000000000024e+00 -2.325019999999999865e-01 1.086543000000000037e+00 1.397329999999999961e-01 -1.608708999999999945e+00 -1.465823000000000098e+00 5.465419999999999723e-01 2.506216999999999917e+00 2.899370000000000003e-01 -1.718018999999999963e+00 1.549409000000000036e+00 -4.264990000000000170e-01 1.021921000000000079e+00 5.194849999999999746e-01 1.337158999999999986e+00 -4.573809999999999820e-01 1.246628999999999987e+00 6.148500000000000076e-01 -1.360609999999999875e-01 -7.445789999999999909e-01 5.850000000000000165e-03 1.952029999999999876e-01 1.086737000000000064e+00 -2.678610000000000158e-01 -1.310551999999999939e+00 -6.268080000000000318e-01 6.835480000000000445e-01 -2.526459000000000010e+00 9.930560000000000498e-01 3.529749999999999832e-01 -6.302959999999999674e-01 8.235829999999999540e-01 4.139999999999999583e-03 3.342430000000000123e-01 9.816719999999999891e-01 2.438988999999999852e+00 3.408300000000000218e-02 9.082800000000000595e-02 2.576289999999999969e-01 4.579139999999999877e-01 4.425239999999999729e-01 -1.093312000000000062e+00 1.107142999999999988e+00 9.491969999999999574e-01 -7.413359999999999950e-01 3.999599999999999822e-01 -2.127492999999999856e+00 1.205513000000000057e+00 8.200190000000000534e-01 -5.518729999999999469e-01 -2.668329999999999869e-01 -2.845710000000000184e-01 -1.750720000000000054e-01 5.227199999999999902e-02 -1.270858000000000043e+00 5.647579999999999822e-01 1.209109999999999907e+00 7.042359999999999731e-01 5.053199999999999914e-01 -8.837899999999999923e-02 6.129959999999999853e-01 -9.197699999999999765e-01 1.393432000000000004e+00 -2.376615999999999840e+00 8.687909999999999799e-01 -8.410140000000000393e-01 -4.194180000000000130e-01